      -----------------------------------------------------------      
     |                   =====================                   |     
     |                           x T B                           |     
     |                   =====================                   |     
     |                         S. Grimme                         |     
     |          Mulliken Center for Theoretical Chemistry        |     
     |                    University of Bonn                     |     
      -----------------------------------------------------------      

   * xtb version 6.7.1 (edcfbbe) compiled by 'runner@Mac-1756978095027.local' on 2025-09-04

   xtb is free software: you can redistribute it and/or modify it under
   the terms of the GNU Lesser General Public License as published by
   the Free Software Foundation, either version 3 of the License, or
   (at your option) any later version.
   
   xtb is distributed in the hope that it will be useful,
   but WITHOUT ANY WARRANTY; without even the implied warranty of
   MERCHANTABILITY or FITNESS FOR A PARTICULAR PURPOSE.  See the
   GNU Lesser General Public License for more details.
   
   Cite this work as:
   * C. Bannwarth, E. Caldeweyher, S. Ehlert, A. Hansen, P. Pracht,
     J. Seibert, S. Spicher, S. Grimme, WIREs Comput. Mol. Sci., 2020, 11,
     e01493. DOI: 10.1002/wcms.1493
   
   for GFN2-xTB:
   * C. Bannwarth, S. Ehlert and S. Grimme., J. Chem. Theory Comput., 2019,
     15, 1652-1671. DOI: 10.1021/acs.jctc.8b01176
   for GFN1-xTB:
   * S. Grimme, C. Bannwarth, P. Shushkov, J. Chem. Theory Comput., 2017,
     13, 1989-2009. DOI: 10.1021/acs.jctc.7b00118
   for GFN0-xTB:
   * P. Pracht, E. Caldeweyher, S. Ehlert, S. Grimme, ChemRxiv, 2019, preprint.
     DOI: 10.26434/chemrxiv.8326202.v1
   for GFN-FF:
   * S. Spicher and S. Grimme, Angew. Chem. Int. Ed., 2020, 59, 15665-15673.
     DOI: 10.1002/anie.202004239
   
   for ALPB and GBSA implicit solvation:
   * S. Ehlert, M. Stahn, S. Spicher, S. Grimme, J. Chem. Theory Comput.,
     2021, 17, 4250-4261. DOI: 10.1021/acs.jctc.1c00471
   
   for ddCOSMO and CPCM-X implicit solvation:
   * M. Stahn, S. Ehlert, S. Grimme, J. Phys. Chem. A,
     2023, XX, XXXX-XXXX. DOI: 10.1021/acs.jpca.3c04382
   
   for DFT-D4:
   * E. Caldeweyher, C. Bannwarth and S. Grimme, J. Chem. Phys., 2017,
     147, 034112. DOI: 10.1063/1.4993215
   * E. Caldeweyher, S. Ehlert, A. Hansen, H. Neugebauer, S. Spicher,
     C. Bannwarth and S. Grimme, J. Chem. Phys., 2019, 150, 154122.
     DOI: 10.1063/1.5090222
   * E. Caldeweyher, J.-M. Mewes, S. Ehlert and S. Grimme, Phys. Chem. Chem. Phys.
     2020, 22, 8499-8512. DOI: 10.1039/D0CP00502A
   
   for sTDA-xTB:
   * S. Grimme and C. Bannwarth, J. Chem. Phys., 2016, 145, 054103.
     DOI: 10.1063/1.4959605
   
   in the mass-spec context:
   * V. Asgeirsson, C. Bauer and S. Grimme, Chem. Sci., 2017, 8, 4879.
     DOI: 10.1039/c7sc00601b
   * J. Koopman and S. Grimme, ACS Omega 2019, 4, 12, 15120-15133.
     DOI: 10.1021/acsomega.9b02011
   
   for metadynamics refer to:
   * S. Grimme, J. Chem. Theory Comput., 2019, 155, 2847-2862
     DOI: 10.1021/acs.jctc.9b00143
   
   for SPH calculations refer to:
   * S. Spicher and S. Grimme, J. Chem. Theory Comput., 2021, 17, 1701-1714
     DOI: 10.1021/acs.jctc.0c01306
   
   for ONIOM refer to:
   * C. Plett, A. Katbashev, S. Ehlert, S. Grimme, M. Bursch,
     Phys. Chem. Chem. Phys., 2023, 25, 17860-17868. DOI: 10.1039/D3CP02178E
   
   for DIPRO refer to:
   * J. Kohn, N. Gildemeister, S. Grimme, D. Fazzi, A. Hansen,
     J. Chem. Phys., 2023, just accepted.
   
   for PTB refer to:
   * S. Grimme, M. Mueller, A. Hansen, J. Chem. Phys., 2023, 158, 124111.
     DOI: 10.1063/5.0137838
   
   with help from (in alphabetical order)
   P. Atkinson, C. Bannwarth, F. Bohle, G. Brandenburg, E. Caldeweyher
   M. Checinski, S. Dohm, S. Ehlert, S. Ehrlich, I. Gerasimov, C. Hölzer
   A. Katbashev, J. Kohn, J. Koopman, C. Lavigne, S. Lehtola, F. März, M. Müller,
   F. Musil, H. Neugebauer, J. Pisarek, C. Plett, P. Pracht, F. Pultar,
   J. Seibert, P. Shushkov, S. Spicher, M. Stahn, M. Steiner, T. Strunk,
   J. Stückrath, T. Rose, and J. Unsleber
   
 * started run on 2026/04/19 at 20:48:07.273     
   ID    Z sym.   atoms
    1    6 C      1-14, 16-19, 39-52, 54-57, 77-90, 92-95
    2    7 N      15, 53, 91
    3    1 H      20-38, 58-76, 96-114

           -------------------------------------------------
          |                Calculation Setup                |
           -------------------------------------------------

          program call               : xtb pre_trajectory.xyz --md --input 5cb_md.inp
          coordinate file            : pre_trajectory.xyz
          omp threads                :                    10


molecular fragmentation (1/2 indicates fragments):
111111111111111111111111111111111111112222222222222222222222222222222222
222222222222222222222222222222222222222222
# atoms in fragment 1/2:    38    76
 fragment masses (1/2) :      249.35      498.70
CMA distance (Bohr)    :   7.313
constraining FC (au)   :  0.0500

           -------------------------------------------------
          |                 G F N 2 - x T B                 |
           -------------------------------------------------

        Reference                      10.1021/acs.jctc.8b01176
      * Hamiltonian:
        H0-scaling (s, p, d)           1.850000    2.230000    2.230000
        zeta-weighting                 0.500000
      * Dispersion:
        s8                             2.700000
        a1                             0.520000
        a2                             5.000000
        s9                             5.000000
      * Repulsion:
        kExp                           1.500000    1.000000
        rExp                           1.000000
      * Coulomb:
        alpha                          2.000000
        third order                    shell-resolved
        anisotropic                    true
        a3                             3.000000
        a5                             4.000000
        cn-shift                       1.200000
        cn-exp                         4.000000
        max-rad                        5.000000


          ...................................................
          :                      SETUP                      :
          :.................................................:
          :  # basis functions                 285          :
          :  # atomic orbitals                 285          :
          :  # shells                          171          :
          :  # electrons                       288          :
          :  max. iterations                   250          :
          :  Hamiltonian                  GFN2-xTB          :
          :  restarted?                      false          :
          :  GBSA solvation                  false          :
          :  PC potential                    false          :
          :  electronic temp.          300.0000000     K    :
          :  accuracy                    1.0000000          :
          :  -> integral cutoff          0.2500000E+02      :
          :  -> integral neglect         0.1000000E-07      :
          :  -> SCF convergence          0.1000000E-05 Eh   :
          :  -> wf. convergence          0.1000000E-03 e    :
          :  Broyden damping             0.4000000          :
          :  net charge                          0          :
          :  unpaired electrons                  0          :
          ...................................................

 iter      E             dE          RMSdq      gap      omega  full diag
   1   -155.8525240 -0.155853E+03  0.429E+00    3.55       0.0  T
   2   -155.9586314 -0.106107E+00  0.266E+00    3.51       1.0  T
   3   -155.7631422  0.195489E+00  0.184E+00    3.23       1.0  T
   4   -156.0296577 -0.266515E+00  0.433E-01    3.21       1.0  T
   5   -156.0396031 -0.994541E-02  0.120E-01    3.20       1.0  T
   6   -156.0402156 -0.612446E-03  0.698E-02    3.22       1.0  T
   7   -156.0405833 -0.367778E-03  0.207E-02    3.24       1.0  T
   8   -156.0405897 -0.631613E-05  0.953E-03    3.24       1.0  T
   9   -156.0405936 -0.395188E-05  0.287E-03    3.24       3.3  T
  10   -156.0405943 -0.692548E-06  0.106E-03    3.24       8.9  T
  11   -156.0405943 -0.287142E-07  0.581E-04    3.24      16.1  T
  12   -156.0405943 -0.372020E-08  0.309E-04    3.24      30.3  T

   *** convergence criteria satisfied after 12 iterations ***

         #    Occupation            Energy/Eh            Energy/eV
      -------------------------------------------------------------
         1        2.0000           -0.6687011             -18.1963
       ...           ...                  ...                  ...
       138        2.0000           -0.4206194             -11.4456
       139        2.0000           -0.4141953             -11.2708
       140        2.0000           -0.4137992             -11.2600
       141        2.0000           -0.4133666             -11.2483
       142        2.0000           -0.3987342             -10.8501
       143        2.0000           -0.3986783             -10.8486
       144        2.0000           -0.3982492             -10.8369 (HOMO)
       145                         -0.2793243              -7.6008 (LUMO)
       146                         -0.2786537              -7.5826
       147                         -0.2786156              -7.5815
       148                         -0.2504135              -6.8141
       149                         -0.2495134              -6.7896
       ...                                ...                  ...
       285                          1.0847714              29.5181
      -------------------------------------------------------------
                  HL-Gap            0.1189249 Eh            3.2361 eV
             Fermi-level           -0.3387867 Eh           -9.2189 eV

 SCC (total)                   0 d,  0 h,  0 min,  0.334 sec
 SCC setup                      ...        0 min,  0.000 sec (  0.142%)
 Dispersion                     ...        0 min,  0.002 sec (  0.528%)
 classical contributions        ...        0 min,  0.000 sec (  0.072%)
 integral evaluation            ...        0 min,  0.005 sec (  1.356%)
 iterations                     ...        0 min,  0.305 sec ( 91.179%)
 molecular gradient             ...        0 min,  0.019 sec (  5.702%)
 printout                       ...        0 min,  0.003 sec (  1.018%)

         :::::::::::::::::::::::::::::::::::::::::::::::::::::
         ::                     SUMMARY                     ::
         :::::::::::::::::::::::::::::::::::::::::::::::::::::
         :: total energy            -153.347624751492 Eh    ::
         :: gradient norm              0.102395036319 Eh/a0 ::
         :: HOMO-LUMO gap              3.236112348511 eV    ::
         ::.................................................::
         :: SCC energy              -156.037273050041 Eh    ::
         :: -> isotropic ES            0.034045854051 Eh    ::
         :: -> anisotropic ES          0.025557827841 Eh    ::
         :: -> anisotropic XC          0.140447322935 Eh    ::
         :: -> dispersion             -0.116940629441 Eh    ::
         :: repulsion energy           2.689648298550 Eh    ::
         :: add. restraining           0.000000000000 Eh    ::
         :: total charge              -0.000000000000 e     ::
         :::::::::::::::::::::::::::::::::::::::::::::::::::::

           -------------------------------------------------
          |                Property Printout                |
           -------------------------------------------------

    * Orbital Energies and Occupations

         #    Occupation            Energy/Eh            Energy/eV
      -------------------------------------------------------------
         1        2.0000           -0.6687011             -18.1963
       ...           ...                  ...                  ...
       132        2.0000           -0.4249650             -11.5639
       133        2.0000           -0.4219522             -11.4819
       134        2.0000           -0.4215350             -11.4706
       135        2.0000           -0.4214165             -11.4673
       136        2.0000           -0.4211602             -11.4604
       137        2.0000           -0.4207074             -11.4480
       138        2.0000           -0.4206194             -11.4456
       139        2.0000           -0.4141953             -11.2708
       140        2.0000           -0.4137992             -11.2600
       141        2.0000           -0.4133666             -11.2483
       142        2.0000           -0.3987342             -10.8501
       143        2.0000           -0.3986783             -10.8486
       144        2.0000           -0.3982492             -10.8369 (HOMO)
       145                         -0.2793243              -7.6008 (LUMO)
       146                         -0.2786537              -7.5826
       147                         -0.2786156              -7.5815
       148                         -0.2504135              -6.8141
       149                         -0.2495134              -6.7896
       150                         -0.2494623              -6.7882
       151                         -0.2385407              -6.4910
       152                         -0.2381668              -6.4808
       153                         -0.2377211              -6.4687
       154                         -0.2345911              -6.3835
       155                         -0.2345026              -6.3811
       ...                                ...                  ...
       285                          1.0847714              29.5181
      -------------------------------------------------------------
                  HL-Gap            0.1189249 Eh            3.2361 eV
             Fermi-level           -0.3387867 Eh           -9.2189 eV

     #   Z          covCN         q      C6AA      α(0)
     1   6 C        3.750    -0.099    22.460     6.759
     2   6 C        3.800    -0.048    21.444     6.593
     3   6 C        3.802    -0.056    21.586     6.615
     4   6 C        3.802    -0.050    21.471     6.597
     5   6 C        3.806    -0.059    21.623     6.620
     6   6 C        2.963     0.013    27.717     8.635
     7   6 C        2.912    -0.037    28.930     8.820
     8   6 C        2.916    -0.034    28.850     8.808
     9   6 C        2.965     0.006    27.876     8.660
    10   6 C        2.965     0.021    27.532     8.607
    11   6 C        2.916    -0.031    28.777     8.797
    12   6 C        2.916    -0.021    28.524     8.758
    13   6 C        2.965     0.020    27.555     8.610
    14   6 C        1.906     0.107    28.445     8.614
    15   7 N        0.911    -0.232    26.088     7.387
    16   6 C        2.916    -0.021    28.533     8.759
    17   6 C        2.916    -0.031    28.785     8.798
    18   6 C        2.916    -0.034    28.855     8.809
    19   6 C        2.912    -0.037    28.923     8.819
    20   1 H        0.924     0.033     2.548     2.496
    21   1 H        0.924     0.033     2.546     2.495
    22   1 H        0.924     0.033     2.551     2.498
    23   1 H        0.924     0.027     2.637     2.539
    24   1 H        0.924     0.028     2.620     2.531
    25   1 H        0.924     0.030     2.580     2.512
    26   1 H        0.924     0.030     2.586     2.515
    27   1 H        0.924     0.030     2.584     2.514
    28   1 H        0.924     0.031     2.576     2.510
    29   1 H        0.924     0.033     2.546     2.495
    30   1 H        0.924     0.034     2.528     2.487
    31   1 H        0.925     0.033     2.547     2.496
    32   1 H        0.925     0.030     2.584     2.514
    33   1 H        0.925     0.039     2.469     2.457
    34   1 H        0.925     0.042     2.425     2.435
    35   1 H        0.925     0.041     2.434     2.440
    36   1 H        0.925     0.038     2.482     2.464
    37   1 H        0.925     0.030     2.586     2.515
    38   1 H        0.925     0.031     2.577     2.510
    39   6 C        3.750    -0.100    22.481     6.762
    40   6 C        3.800    -0.051    21.493     6.601
    41   6 C        3.802    -0.058    21.619     6.620
    42   6 C        3.802    -0.050    21.469     6.597
    43   6 C        3.806    -0.061    21.672     6.627
    44   6 C        2.963     0.014    27.706     8.634
    45   6 C        2.912    -0.038    28.936     8.821
    46   6 C        2.916    -0.034    28.844     8.807
    47   6 C        2.965     0.006    27.891     8.663
    48   6 C        2.965     0.021    27.541     8.608
    49   6 C        2.916    -0.032    28.786     8.798
    50   6 C        2.916    -0.021    28.528     8.759
    51   6 C        2.965     0.020    27.554     8.610
    52   6 C        1.906     0.107    28.452     8.615
    53   7 N        0.911    -0.231    26.067     7.384
    54   6 C        2.916    -0.021    28.536     8.760
    55   6 C        2.916    -0.031    28.782     8.797
    56   6 C        2.916    -0.034    28.853     8.808
    57   6 C        2.912    -0.038    28.940     8.821
    58   1 H        0.924     0.033     2.545     2.495
    59   1 H        0.924     0.033     2.548     2.496
    60   1 H        0.924     0.033     2.538     2.492
    61   1 H        0.924     0.029     2.603     2.523
    62   1 H        0.924     0.028     2.613     2.528
    63   1 H        0.924     0.032     2.564     2.504
    64   1 H        0.924     0.032     2.564     2.504
    65   1 H        0.924     0.030     2.592     2.518
    66   1 H        0.924     0.029     2.594     2.519
    67   1 H        0.924     0.036     2.502     2.474
    68   1 H        0.924     0.036     2.501     2.473
    69   1 H        0.925     0.033     2.550     2.497
    70   1 H        0.925     0.030     2.590     2.517
    71   1 H        0.925     0.039     2.468     2.457
    72   1 H        0.925     0.041     2.431     2.438
    73   1 H        0.925     0.041     2.434     2.440
    74   1 H        0.925     0.036     2.503     2.474
    75   1 H        0.925     0.030     2.587     2.515
    76   1 H        0.925     0.033     2.539     2.492
    77   6 C        3.750    -0.100    22.481     6.762
    78   6 C        3.800    -0.050    21.470     6.597
    79   6 C        3.802    -0.058    21.619     6.620
    80   6 C        3.802    -0.049    21.448     6.594
    81   6 C        3.806    -0.061    21.666     6.626
    82   6 C        2.963     0.014    27.700     8.633
    83   6 C        2.912    -0.038    28.946     8.822
    84   6 C        2.916    -0.034    28.855     8.809
    85   6 C        2.965     0.006    27.885     8.662
    86   6 C        2.965     0.021    27.546     8.609
    87   6 C        2.916    -0.031    28.783     8.798
    88   6 C        2.916    -0.021    28.528     8.759
    89   6 C        2.965     0.020    27.549     8.609
    90   6 C        1.906     0.107    28.448     8.614
    91   7 N        0.911    -0.231    26.064     7.384
    92   6 C        2.916    -0.021    28.530     8.759
    93   6 C        2.916    -0.031    28.774     8.796
    94   6 C        2.916    -0.034    28.859     8.809
    95   6 C        2.912    -0.037    28.929     8.820
    96   1 H        0.924     0.033     2.541     2.493
    97   1 H        0.924     0.033     2.544     2.494
    98   1 H        0.924     0.033     2.541     2.493
    99   1 H        0.924     0.028     2.615     2.529
   100   1 H        0.924     0.027     2.629     2.536
   101   1 H        0.924     0.031     2.568     2.506
   102   1 H        0.924     0.032     2.565     2.504
   103   1 H        0.924     0.030     2.587     2.515
   104   1 H        0.924     0.029     2.603     2.523
   105   1 H        0.924     0.036     2.507     2.476
   106   1 H        0.924     0.036     2.502     2.474
   107   1 H        0.925     0.033     2.545     2.495
   108   1 H        0.925     0.029     2.596     2.520
   109   1 H        0.925     0.039     2.468     2.457
   110   1 H        0.925     0.042     2.428     2.437
   111   1 H        0.925     0.041     2.430     2.438
   112   1 H        0.925     0.036     2.503     2.474
   113   1 H        0.925     0.029     2.595     2.519
   114   1 H        0.925     0.033     2.543     2.494

 Mol. C6AA /au·bohr⁶  :     147123.481400
 Mol. C8AA /au·bohr⁸  :    3533489.458837
 Mol. α(0) /au        :        604.387427


Wiberg/Mayer (AO) data.
largest (>0.10) Wiberg bond orders for each atom

 ---------------------------------------------------------------------------
     #   Z sym  total        # sym  WBO       # sym  WBO       # sym  WBO
 ---------------------------------------------------------------------------
     1   6 C    3.996 --     2 C    1.020    22 H    0.988    20 H    0.988
                            21 H    0.987
     2   6 C    3.997 --     1 C    1.020     3 C    1.007    24 H    0.978
                            23 H    0.976
     3   6 C    3.996 --     2 C    1.007     4 C    1.006    26 H    0.977
                            25 H    0.977
     4   6 C    3.995 --     3 C    1.006     5 C    0.990    27 H    0.977
                            28 H    0.977
     5   6 C    3.996 --     6 C    1.011     4 C    0.990    30 H    0.972
                            29 H    0.972
     6   6 C    3.983 --     7 C    1.408    19 C    1.408     5 C    1.011
                             9 C    0.101
     7   6 C    3.989 --     8 C    1.450     6 C    1.408    31 H    0.969
                            18 C    0.108
     8   6 C    3.988 --     7 C    1.450     9 C    1.389    32 H    0.970
                            19 C    0.108
     9   6 C    3.987 --     8 C    1.389    18 C    1.389    10 C    1.041
                             6 C    0.101
    10   6 C    3.964 --    11 C    1.385    17 C    1.385     9 C    1.041
    11   6 C    3.990 --    12 C    1.458    10 C    1.385    33 H    0.969
                            16 C    0.104
    12   6 C    3.990 --    11 C    1.458    13 C    1.363    34 H    0.970
                            17 C    0.104
    13   6 C    3.985 --    12 C    1.363    16 C    1.363    14 C    1.085
    14   6 C    3.941 --    15 N    2.807    13 C    1.085
    15   7 N    2.977 --    14 C    2.807
    16   6 C    3.990 --    17 C    1.458    13 C    1.363    35 H    0.970
                            11 C    0.104
    17   6 C    3.990 --    16 C    1.458    10 C    1.385    36 H    0.969
                            12 C    0.104
    18   6 C    3.988 --    19 C    1.450     9 C    1.389    37 H    0.970
                             7 C    0.108
    19   6 C    3.989 --    18 C    1.450     6 C    1.408    38 H    0.969
                             8 C    0.108
    20   1 H    0.999 --     1 C    0.988
    21   1 H    0.998 --     1 C    0.987
    22   1 H    0.999 --     1 C    0.988
    23   1 H    0.999 --     2 C    0.976
    24   1 H    0.999 --     2 C    0.978
    25   1 H    0.999 --     3 C    0.977
    26   1 H    0.999 --     3 C    0.977
    27   1 H    0.999 --     4 C    0.977
    28   1 H    0.999 --     4 C    0.977
    29   1 H    0.998 --     5 C    0.972
    30   1 H    0.998 --     5 C    0.972
    31   1 H    0.998 --     7 C    0.969
    32   1 H    0.999 --     8 C    0.970
    33   1 H    0.997 --    11 C    0.969
    34   1 H    0.998 --    12 C    0.970
    35   1 H    0.998 --    16 C    0.970
    36   1 H    0.997 --    17 C    0.969
    37   1 H    0.999 --    18 C    0.970
    38   1 H    0.998 --    19 C    0.969
    39   6 C    3.996 --    40 C    1.020    58 H    0.988    60 H    0.988
                            59 H    0.987
    40   6 C    3.997 --    39 C    1.020    41 C    1.007    62 H    0.978
                            61 H    0.978
    41   6 C    3.996 --    40 C    1.007    42 C    1.006    64 H    0.977
                            63 H    0.977
    42   6 C    3.995 --    41 C    1.006    43 C    0.990    65 H    0.977
                            66 H    0.977
    43   6 C    3.996 --    44 C    1.011    42 C    0.990    68 H    0.972
                            67 H    0.972
    44   6 C    3.983 --    57 C    1.408    45 C    1.408    43 C    1.011
                            47 C    0.101
    45   6 C    3.989 --    46 C    1.450    44 C    1.408    69 H    0.969
                            56 C    0.108
    46   6 C    3.988 --    45 C    1.450    47 C    1.389    70 H    0.970
                            57 C    0.108
    47   6 C    3.987 --    56 C    1.389    46 C    1.389    48 C    1.041
                            44 C    0.101
    48   6 C    3.964 --    55 C    1.385    49 C    1.384    47 C    1.041
    49   6 C    3.989 --    50 C    1.458    48 C    1.384    71 H    0.969
                            54 C    0.104
    50   6 C    3.990 --    49 C    1.458    51 C    1.363    72 H    0.970
                            55 C    0.104
    51   6 C    3.985 --    54 C    1.363    50 C    1.363    52 C    1.085
    52   6 C    3.941 --    53 N    2.808    51 C    1.085
    53   7 N    2.977 --    52 C    2.808
    54   6 C    3.990 --    55 C    1.458    51 C    1.363    73 H    0.970
                            49 C    0.104
    55   6 C    3.990 --    54 C    1.458    48 C    1.385    74 H    0.969
                            50 C    0.104
    56   6 C    3.988 --    57 C    1.450    47 C    1.389    75 H    0.970
                            45 C    0.108
    57   6 C    3.989 --    56 C    1.450    44 C    1.408    76 H    0.969
                            46 C    0.108
    58   1 H    0.999 --    39 C    0.988
    59   1 H    0.998 --    39 C    0.987
    60   1 H    0.999 --    39 C    0.988
    61   1 H    0.999 --    40 C    0.978
    62   1 H    0.999 --    40 C    0.978
    63   1 H    0.999 --    41 C    0.977
    64   1 H    0.999 --    41 C    0.977
    65   1 H    0.999 --    42 C    0.977
    66   1 H    0.999 --    42 C    0.977
    67   1 H    0.998 --    43 C    0.972
    68   1 H    0.998 --    43 C    0.972
    69   1 H    0.998 --    45 C    0.969
    70   1 H    0.999 --    46 C    0.970
    71   1 H    0.997 --    49 C    0.969
    72   1 H    0.998 --    50 C    0.970
    73   1 H    0.998 --    54 C    0.970
    74   1 H    0.998 --    55 C    0.969
    75   1 H    0.999 --    56 C    0.970
    76   1 H    0.998 --    57 C    0.969
    77   6 C    3.996 --    78 C    1.020    98 H    0.988    96 H    0.988
                            97 H    0.987
    78   6 C    3.997 --    77 C    1.020    79 C    1.007    99 H    0.978
                           100 H    0.978
    79   6 C    3.996 --    78 C    1.007    80 C    1.006   102 H    0.977
                           101 H    0.977
    80   6 C    3.995 --    79 C    1.006    81 C    0.990   104 H    0.977
                           103 H    0.976
    81   6 C    3.996 --    82 C    1.011    80 C    0.990   106 H    0.972
                           105 H    0.972
    82   6 C    3.983 --    95 C    1.408    83 C    1.408    81 C    1.011
                            85 C    0.101
    83   6 C    3.989 --    84 C    1.450    82 C    1.408   107 H    0.969
                            94 C    0.108
    84   6 C    3.988 --    83 C    1.450    85 C    1.389   108 H    0.970
                            95 C    0.108
    85   6 C    3.987 --    94 C    1.389    84 C    1.389    86 C    1.040
                            82 C    0.101
    86   6 C    3.964 --    93 C    1.385    87 C    1.384    85 C    1.040
    87   6 C    3.989 --    88 C    1.458    86 C    1.384   109 H    0.969
                            92 C    0.105
    88   6 C    3.990 --    87 C    1.458    89 C    1.363   110 H    0.970
                            93 C    0.104
    89   6 C    3.985 --    92 C    1.363    88 C    1.363    90 C    1.085
    90   6 C    3.941 --    91 N    2.808    89 C    1.085
    91   7 N    2.977 --    90 C    2.808
    92   6 C    3.990 --    93 C    1.457    89 C    1.363   111 H    0.970
                            87 C    0.105
    93   6 C    3.990 --    92 C    1.457    86 C    1.385   112 H    0.969
                            88 C    0.104
    94   6 C    3.988 --    95 C    1.450    85 C    1.389   113 H    0.970
                            83 C    0.108
    95   6 C    3.989 --    94 C    1.450    82 C    1.408   114 H    0.969
                            84 C    0.108
    96   1 H    0.999 --    77 C    0.988
    97   1 H    0.998 --    77 C    0.987
    98   1 H    0.999 --    77 C    0.988
    99   1 H    0.999 --    78 C    0.978
   100   1 H    0.999 --    78 C    0.978
   101   1 H    0.999 --    79 C    0.977
   102   1 H    0.999 --    79 C    0.977
   103   1 H    0.999 --    80 C    0.976
   104   1 H    0.999 --    80 C    0.977
   105   1 H    0.998 --    81 C    0.972
   106   1 H    0.998 --    81 C    0.972
   107   1 H    0.998 --    83 C    0.969
   108   1 H    0.999 --    84 C    0.970
   109   1 H    0.997 --    87 C    0.969
   110   1 H    0.998 --    88 C    0.970
   111   1 H    0.998 --    92 C    0.970
   112   1 H    0.998 --    93 C    0.969
   113   1 H    0.999 --    94 C    0.970
   114   1 H    0.998 --    95 C    0.969
 ---------------------------------------------------------------------------

Topologies differ in total number of bonds
Writing topology from bond orders to xtbtopo.mol

molecular dipole:
                 x           y           z       tot (Debye)
 q only:       -2.129      -1.463      -2.572
   full:       -2.692      -1.828      -3.214      11.626
molecular quadrupole (traceless):
                xx          xy          yy          xz          yz          zz
 q only:        1.518      15.475      18.407      14.134     -38.146     -19.924
  q+dip:        5.049      16.173      25.571      17.728     -53.812     -30.620
   full:        2.066      18.681      29.229      16.813     -57.174     -31.295


           -------------------------------------------------
          | TOTAL ENERGY             -153.347624751492 Eh   |
          | GRADIENT NORM               0.102395036319 Eh/α |
          | HOMO-LUMO GAP               3.236112348511 eV   |
           -------------------------------------------------
           ------------------------------------------------- 
          |               Molecular Dynamics                |
           ------------------------------------------------- 
 trajectories on xtb.trj or xtb.trj.<n>

 MD time /ps        :   10.00
 dt /fs             :    1.00
 SCC accuracy       :    2.00
 temperature /K     :  300.00
 max steps          : 10000
 block length (av.) :  5000
 dumpstep(trj) /fs  :   50.00    50
 dumpstep(coords)/fs: 1000.00  1000
 H atoms mass (amu) :     4
 # deg. of freedom  :   225
 SHAKE on. # bonds  :         117  all: T
 Berendsen THERMOSTAT on
         time (ps)    <Epot>      Ekin   <T>   T     Etot
      0    0.00      0.00000   0.2672    0.    0.  -153.08043
est. speed in wall clock h for 100 ps :  5.17
    200    0.20   -152.50569   0.0972  265.  273.  -153.17014
    400    0.40   -152.88354   0.1019  266.  286.  -153.16473
    600    0.60   -153.00858   0.1039  267.  292.  -153.16208
    800    0.80   -153.07226   0.0945  272.  265.  -153.16064
   1000    1.00   -153.10967   0.1140  275.  320.  -153.15824
   1200    1.20   -153.13469   0.0883  277.  248.  -153.15440
   1400    1.40   -153.15220   0.0997  279.  280.  -153.15395
   1600    1.60   -153.16532   0.1075  280.  302.  -153.15290
   1800    1.80   -153.17588   0.1075  283.  302.  -153.15293
   2000    2.00   -153.18385   0.1159  283.  325.  -153.15137
   2200    2.20   -153.19020   0.1012  284.  284.  -153.15048
   2400    2.40   -153.19590   0.1026  285.  288.  -153.15087
   2600    2.60   -153.20010   0.1024  285.  287.  -153.14870
   2800    2.80   -153.20392   0.1209  286.  339.  -153.14857
   3000    3.00   -153.20696   0.1015  286.  285.  -153.14576
   3200    3.20   -153.21002   0.1064  288.  299.  -153.14662
   3400    3.40   -153.21270   0.1052  288.  295.  -153.14587
   3600    3.60   -153.21486   0.1060  289.  297.  -153.14718
   3800    3.80   -153.21688   0.1127  289.  316.  -153.14828
   4000    4.00   -153.21868   0.1145  290.  321.  -153.14452
   4200    4.20   -153.22023   0.1010  290.  283.  -153.14480
   4400    4.40   -153.22158   0.1099  290.  309.  -153.14676
   4600    4.60   -153.22300   0.1057  291.  297.  -153.14291
   4800    4.80   -153.22418   0.1052  291.  295.  -153.14364
block <Epot> / <T> :    -153.25585  291.     drift:  0.99D+02   Tbath : 300.
   5000    5.00   -153.22521   0.0954  291.  268.  -153.14408
   5200    5.20   -153.22616   0.1200  292.  337.  -153.14500
   5400    5.40   -153.22732   0.1006  292.  282.  -153.14573
   5600    5.60   -153.22835   0.1111  293.  312.  -153.14316
   5800    5.80   -153.22952   0.1118  294.  314.  -153.14991
   6000    6.00   -153.23075   0.0908  295.  255.  -153.15269
   6200    6.20   -153.23173   0.1087  295.  305.  -153.15241
   6400    6.40   -153.23286   0.1112  296.  312.  -153.15592
   6600    6.60   -153.23388   0.1053  296.  296.  -153.15991
   6800    6.80   -153.23504   0.1020  297.  286.  -153.16183
   7000    7.00   -153.23597   0.0954  297.  268.  -153.16147
   7200    7.20   -153.23675   0.1112  297.  312.  -153.15861
   7400    7.40   -153.23760   0.1071  297.  301.  -153.16135
   7600    7.60   -153.23851   0.1113  297.  312.  -153.15976
   7800    7.80   -153.23940   0.1073  298.  301.  -153.16520
   8000    8.00   -153.24021   0.1122  298.  315.  -153.16218
   8200    8.20   -153.24093   0.1108  298.  311.  -153.16410
   8400    8.40   -153.24162   0.1064  298.  299.  -153.16365
   8600    8.60   -153.24226   0.0933  298.  262.  -153.16323
   8800    8.80   -153.24287   0.1049  298.  294.  -153.16182
   9000    9.00   -153.24354   0.1091  298.  306.  -153.16313
   9200    9.20   -153.24404   0.0978  298.  275.  -153.16137
   9400    9.40   -153.24467   0.1160  298.  326.  -153.16575
   9600    9.60   -153.24524   0.1105  298.  310.  -153.16556
   9800    9.80   -153.24569   0.1006  298.  282.  -153.16535
 average properties 
 Epot               :  -153.24612966509594     
 Epot (accurate SCC):  -153.26141147165993     
 Ekin               :  0.10621856767473288     
 Etot               :  -153.13991109742119     
 T                  :   298.14402183771642     
 normal exit of md()
########################################################################
[WARNING] Runtime exception occurred
-2- restart_readRestart: Dimension missmatch in restart file.
-1- restart_readRestart: Number of electron missmatch in restart file.
########################################################################

------------------------------------------------------------------------
 * finished run on 2026/04/19 at 21:23:35.002     
------------------------------------------------------------------------
 total:
 * wall-time:     0 d,  0 h, 35 min, 27.727 sec
 *  cpu-time:     0 d,  0 h, 51 min, 10.617 sec
 * ratio c/w:     1.443 speedup
 SCF:
 * wall-time:     0 d,  0 h,  0 min,  0.335 sec
 *  cpu-time:     0 d,  0 h,  0 min,  0.440 sec
 * ratio c/w:     1.316 speedup
 MD:
 * wall-time:     0 d,  0 h, 35 min, 27.367 sec
 *  cpu-time:     0 d,  0 h, 51 min, 10.150 sec
 * ratio c/w:     1.443 speedup

