114
 energy: -153.347624758782 gnorm: 0.102397866148 xtb: 6.7.1 (edcfbbe)
C           -6.80647400000000        0.12231700000000       -0.62823300000000
C           -5.32616400000000       -0.03900200000000       -0.93502600000000
C           -4.46276400000000        0.29110900000000        0.28224500000000
C           -2.97439000000000        0.12769500000000       -0.03043400000000
C           -2.11181000000000        0.45862000000000        1.18941100000000
C           -0.64183900000000        0.30057600000000        0.89163800000000
C           -0.00469200000000       -0.92889300000000        1.08841400000000
C            1.35484300000000       -1.07831800000000        0.79633100000000
C            2.11119200000000       -0.00720100000000        0.29520100000000
C            3.54177700000000       -0.16665200000000       -0.01258100000000
C            4.43934800000000       -0.65335400000000        0.95261100000000
C            5.79975900000000       -0.80531500000000        0.66278400000000
C            6.28774400000000       -0.47290900000000       -0.60314000000000
C            7.68092900000000       -0.62827700000000       -0.90276600000000
N            8.80897700000000       -0.75408100000000       -1.14539100000000
C            5.40956600000000        0.01184000000000       -1.57526000000000
C            4.05021600000000        0.16319600000000       -1.28017700000000
C            1.45980900000000        1.21998100000000        0.09474000000000
C            0.10071400000000        1.37307000000000        0.38699300000000
H           -7.11407700000000       -0.54541400000000        0.18284800000000
H           -7.40521000000000       -0.11869500000000       -1.51216600000000
H           -7.03602300000000        1.15101800000000       -0.33256800000000
H           -5.13614600000000       -1.06912400000000       -1.25820700000000
H           -5.05852700000000        0.61795500000000       -1.77077900000000
H           -4.73722500000000       -0.36610200000000        1.11639100000000
H           -4.65965800000000        1.32109700000000        0.60382600000000
H           -2.70161500000000        0.78173700000000       -0.86838000000000
H           -2.77898900000000       -0.90163400000000       -0.35697600000000
H           -2.38388300000000       -0.18921500000000        2.03243300000000
H           -2.30685400000000        1.48557500000000        1.52365200000000
H           -0.56277000000000       -1.78213700000000        1.46755600000000
H            1.81908300000000       -2.05018300000000        0.95165300000000
H            4.08208200000000       -0.90771400000000        1.94939000000000
H            6.47008200000000       -1.18147100000000        1.43337600000000
H            5.77174800000000        0.27283200000000       -2.56790800000000
H            3.38120100000000        0.53195200000000       -2.05627800000000
H            2.01278600000000        2.07731600000000       -0.28386300000000
H           -0.37274600000000        2.33780700000000        0.21864200000000
C           -1.10894900000000       -1.32790100000000       -7.29206200000000
C           -1.17430200000000       -0.55752500000000       -5.98297300000000
C           -1.73750700000000        0.84849500000000       -6.18813500000000
C           -1.80158100000000        1.62021200000000       -4.86901400000000
C           -2.36565800000000        3.02744900000000       -5.07656700000000
C           -2.43309600000000        3.79718500000000       -3.78141500000000
C           -3.57307800000000        3.73135900000000       -2.97371600000000
C           -3.62775400000000        4.43273400000000       -1.76497200000000
C           -2.54483000000000        5.21222600000000       -1.32890200000000
C           -2.60383500000000        5.94892500000000       -0.05590600000000
C           -3.65574600000000        6.83977900000000        0.21607400000000
C           -3.71387100000000        7.54170700000000        1.42509300000000
C           -2.71738000000000        7.36302200000000        2.38751900000000
C           -2.77497700000000        8.08047900000000        3.62720400000000
N           -2.82160200000000        8.66138400000000        4.63097800000000
C           -1.66441300000000        6.48078400000000        2.13431700000000
C           -1.61008200000000        5.78209600000000        0.92324300000000
C           -1.40315400000000        5.26519500000000       -2.14390400000000
C           -1.34574700000000        4.56602400000000       -3.35380200000000
H           -2.10451100000000       -1.43471900000000       -7.73453600000000
H           -0.70342000000000       -2.33019500000000       -7.12217500000000
H           -0.46403000000000       -0.81855400000000       -8.01523700000000
H           -1.80003200000000       -1.10938000000000       -5.27190100000000
H           -0.16859700000000       -0.49661600000000       -5.55105900000000
H           -2.74184000000000        0.78192500000000       -6.62395700000000
H           -1.11031000000000        1.39471700000000       -6.90320200000000
H           -0.79725600000000        1.68202600000000       -4.43102000000000
H           -2.42508700000000        1.07063700000000       -4.15239800000000
H           -3.36829400000000        2.97189800000000       -5.51932500000000
H           -1.74877600000000        3.58021300000000       -5.79650100000000
H           -4.42722700000000        3.13013100000000       -3.27732500000000
H           -4.52535400000000        4.35357800000000       -1.15487900000000
H           -4.43691100000000        7.00259800000000       -0.52499200000000
H           -4.53997800000000        8.22737500000000        1.60410500000000
H           -0.88100700000000        6.32682200000000        2.87405500000000
H           -0.78650700000000        5.09071900000000        0.75114600000000
H           -0.54568800000000        5.86524000000000       -1.84583100000000
H           -0.44493900000000        4.62836900000000       -3.96033500000000
C           -4.34645600000000       -4.79921600000000       -4.38733200000000
C           -3.83369100000000       -4.12946300000000       -3.12243400000000
C           -4.06625800000000       -5.00508600000000       -1.89142700000000
C           -3.54915700000000       -4.32785200000000       -0.62111400000000
C           -3.78291800000000       -5.20602700000000        0.61004000000000
C           -3.27641000000000       -4.54718000000000        1.86854500000000
C           -1.95740500000000       -4.74135000000000        2.29138300000000
C           -1.48435900000000       -4.11660800000000        3.44978900000000
C           -2.31303200000000       -3.27811700000000        4.21183800000000
C           -1.81307600000000       -2.62063600000000        5.43023400000000
C           -1.22322000000000       -3.36660600000000        6.46450100000000
C           -0.74771100000000       -2.74414300000000        7.62391500000000
C           -0.85325200000000       -1.35885700000000        7.76893900000000
C           -0.36629100000000       -0.71868100000000        8.95549900000000
N            0.02800100000000       -0.20031800000000        9.91623800000000
C           -1.43629600000000       -0.60132200000000        6.75041300000000
C           -1.91143200000000       -1.22858600000000        5.59343400000000
C           -3.63267300000000       -3.08463700000000        3.77414600000000
C           -4.10919300000000       -3.70888600000000        2.61689500000000
H           -3.83610000000000       -5.75189500000000       -4.56133600000000
H           -4.17002400000000       -4.15590700000000       -5.25505100000000
H           -5.42190600000000       -4.99234100000000       -4.32065600000000
H           -2.76330900000000       -3.92109000000000       -3.23453700000000
H           -4.34037300000000       -3.16572700000000       -2.99518800000000
H           -3.56071100000000       -5.96918100000000       -2.02558500000000
H           -5.13790400000000       -5.21382200000000       -1.78626100000000
H           -4.05167600000000       -3.36106300000000       -0.49025700000000
H           -2.47805800000000       -4.11470600000000       -0.72902300000000
H           -3.28670600000000       -6.17654800000000        0.48251300000000
H           -4.85229300000000       -5.42674900000000        0.72011300000000
H           -1.28567300000000       -5.37816000000000        1.72000400000000
H           -0.45047900000000       -4.28056900000000        3.74706400000000
H           -1.14127000000000       -4.44897700000000        6.37695500000000
H           -0.29915100000000       -3.35044800000000        8.40866100000000
H           -1.52394500000000        0.47942100000000        6.84503600000000
H           -2.35204200000000       -0.61776700000000        4.80688600000000
H           -4.30956100000000       -2.44912500000000        4.34168100000000
H           -5.13708900000000       -3.53607200000000        2.30578500000000
114
 energy: -153.264891181730 gnorm: 0.172646309430 xtb: 6.7.1 (edcfbbe)
C           -6.74688738360377        0.04207283849904       -0.48876858207032
C           -5.33469853094965        0.26451436881180       -1.00617158736117
C           -4.38358120498629        0.60236942810136        0.14161380555561
C           -2.95793657777683        0.05864108205549        0.03378833533526
C           -2.13880437149790        0.47646178922228        1.25690962954765
C           -0.66018506707056        0.38897774271204        0.97319703004837
C           -0.01970324904364       -0.84591232264279        1.11845751886906
C            1.28450697891061       -1.16381461925670        0.72609358392882
C            2.06440136947189       -0.06621125487713        0.32920799045579
C            3.49035341486413       -0.27350884961486        0.02851528727303
C            4.36477036201734       -0.79129829500491        0.99877147580637
C            5.73900002122640       -0.91477628898656        0.76627236109817
C            6.25873240065615       -0.47886062688080       -0.45481008543162
C            7.67879469256275       -0.50898972973123       -0.64818687189309
N            8.75909315931854       -0.66091249235633       -1.04449540605802
C            5.39445025297477        0.00621448831277       -1.43914430398925
C            4.01605725406307        0.10288438867693       -1.21891125862676
C            1.50215567349504        1.21729049825141        0.24576354574587
C            0.14113467025437        1.42808918585115        0.48901842161481
H           -6.68135181424576       -0.67373895439637        0.33685557497008
H           -7.34378415614725       -0.49001706647823       -1.23609963730013
H           -7.19114802881024        0.97297513504277       -0.12217660689937
H           -4.91573285468786       -0.58020035088870       -1.56530389532920
H           -5.41926708293483        1.04383275794254       -1.77247188643055
H           -4.74352755375750        0.18024004277806        1.08781679388297
H           -4.28354933376050        1.68853407851783        0.25692574101222
H           -2.29656553072015        0.39334506043482       -0.77546577710503
H           -3.12844684356122       -1.00976034231514       -0.14998886402355
H           -2.32023394698908       -0.04814044599146        2.20362806021592
H           -2.38872347829907        1.53919884571834        1.36882994527072
H           -0.57938376567893       -1.65118369531051        1.58911741320593
H            1.61474772498549       -2.19891680152265        0.78667200104154
H            3.94213217137350       -0.96573058341078        1.98713206473591
H            6.37332773607880       -1.16647435442615        1.61416071748005
H            5.82090540394754        0.37378907034659       -2.37063104498861
H            3.43151413561745        0.43818862796982       -2.07434983767259
H            2.07857317301921        2.04451769695244       -0.16360801150318
H           -0.19982200545922        2.41383759549634        0.18035600097506
C           -0.94459587550678       -1.37416824848664       -7.49518598286257
C           -1.27132967368743       -0.60518425570859       -6.22499983553266
C           -2.02392329561341        0.72188108298613       -6.31818772720506
C           -1.95362531070147        1.53634792378396       -5.02534791900403
C           -2.53399259318165        2.95187267797471       -5.05760552583492
C           -2.45727859833548        3.65297684330562       -3.72455340388366
C           -3.60643294000472        3.70320426717649       -2.92882031829252
C           -3.61371937088959        4.48749691891641       -1.77088669015491
C           -2.51773418893163        5.24971210087716       -1.33691250392836
C           -2.55959349379939        5.97579107450125       -0.05715362973905
C           -3.61600924093703        6.83375665291944        0.29211908274963
C           -3.66839047358732        7.55987829781304        1.48702989409872
C           -2.65075779909920        7.34158492230619        2.41867257718499
C           -2.80257200942342        8.03296807130959        3.66519675940582
N           -2.94438913935398        8.61521383984825        4.65921107708941
C           -1.60014344853662        6.45382213383834        2.17519515423580
C           -1.57385794945787        5.81429996229413        0.93095346541608
C           -1.36444650853415        5.20579515297381       -2.13594740628467
C           -1.37998704391266        4.44121064599946       -3.30691186972556
H           -1.91572287124035       -1.70252386655381       -7.87915468957096
H           -0.37356557103844       -2.28951655675867       -7.31087512925689
H           -0.42127814538795       -0.73010947799237       -8.20909341166018
H           -1.81015256520319       -1.26506990403347       -5.53512579972442
H           -0.36924892496425       -0.35974189024879       -5.65253977207964
H           -3.06352906654698        0.57365768468782       -6.63490024523046
H           -1.60552089073189        1.26515098494599       -7.17425583441940
H           -0.89272532466183        1.65031926821559       -4.76877401375435
H           -2.48090094612696        0.88555949126929       -4.31627407210625
H           -3.53013930235223        3.06542269388023       -5.50392113623788
H           -1.83718979722155        3.47298413420193       -5.72641425081594
H           -4.51269044505075        3.12150200025209       -3.08226028683293
H           -4.45948266506204        4.38912995538755       -1.09326345390307
H           -4.40385949942484        7.02137335443415       -0.43589155840024
H           -4.51248033863868        8.22880498308459        1.64415410944045
H           -0.86291390645075        6.26892522268073        2.95426334805093
H           -0.73563023444605        5.16625271805788        0.67934994784123
H           -0.44745418901802        5.75658418783213       -1.93618270788127
H           -0.53754578419852        4.52583069429537       -3.98981477220028
C           -4.63573482131692       -4.84676886459188       -4.39753454702877
C           -3.72068260979664       -4.30924687326213       -3.30885941863398
C           -3.96943947654076       -4.94857728558880       -1.94300513454686
C           -3.26452586783985       -4.39994690217957       -0.70129826241536
C           -3.69494171688173       -5.14573826011311        0.56365752553246
C           -3.19061957639520       -4.47666511839572        1.81763712736068
C           -1.84099069237201       -4.53699068938933        2.17975702562451
C           -1.37373595260917       -3.91465082303308        3.34180074550636
C           -2.23315868841041       -3.12728043703960        4.12405719446771
C           -1.78021650969502       -2.56626456423664        5.40734615781543
C           -1.23591383037177       -3.36602055012456        6.42628406365037
C           -0.85495446308558       -2.78102252779496        7.63890809325813
C           -0.84624718795494       -1.40368507572352        7.87140287783940
C           -0.22618918951595       -0.73804727065020        8.97925452862939
N            0.12311648477128       -0.06287910209937        9.85636299519407
C           -1.41926547805156       -0.60087854946100        6.88228890277586
C           -1.97330716518505       -1.21890318066403        5.75583514770711
C           -3.59001632553967       -3.11691596656346        3.76448656959559
C           -4.08713183705561       -3.79426748401966        2.64642617204316
H           -4.81788555649913       -5.92595690419240       -4.37490269918741
H           -4.35331542400187       -4.61065247251353       -5.42826211354115
H           -5.60883241083169       -4.34658850210222       -4.36237287370511
H           -2.68994762191314       -4.36031982636070       -3.67856329136220
H           -3.96100756039644       -3.23998393480703       -3.28384027405949
H           -3.87990774753974       -6.03490096256614       -2.06523542832338
H           -5.06218287703950       -4.91081614388170       -1.85616211133998
H           -3.51705721192047       -3.33212514699753       -0.68356446750762
H           -2.19455652959009       -4.52583022966882       -0.91021843450274
H           -3.30772170776148       -6.16916919413848        0.47969159294088
H           -4.79177355714193       -5.15909947096178        0.59798745154975
H           -1.08879534037505       -5.06155150636266        1.59472463097359
H           -0.35153921836521       -4.07513359060864        3.67873187201058
H           -1.16063156978859       -4.43414040906660        6.22789151244127
H           -0.48185459205732       -3.45847888951950        8.40473277789839
H           -1.42767878508499        0.48745287784010        6.89254484029093
H           -2.50833604757845       -0.60373589092058        5.03388774473999
H           -4.30806165000123       -2.60251817250326        4.40006083053696
H           -5.14209805044941       -3.75680309048718        2.38400096778735
114
 energy: -153.268502541447 gnorm: 0.167213588765 xtb: 6.7.1 (edcfbbe)
C           -6.57911157909518       -0.09603405433929       -0.41575497076972
C           -5.26603765824406        0.43957415624834       -0.96386461595229
C           -4.32281881834243        0.94561459017140        0.12720954147182
C           -2.99843687656761        0.18190811697341        0.07726611908057
C           -2.08672495032053        0.68825096690259        1.19707668279143
C           -0.66054403946701        0.28289303405960        0.92111598981875
C           -0.11018760921218       -0.99843150324048        1.02875551815349
C            1.26180694602617       -1.21683171695594        0.86779610795406
C            2.00279167664617       -0.14776509374803        0.34004165642190
C            3.45353466269946       -0.26522843991077        0.12032641589081
C            4.27503488232990       -0.87752852795205        1.08174930021369
C            5.65811904409224       -0.92200704099380        0.87460282490385
C            6.19611506993956       -0.49415467080344       -0.34141080766791
C            7.61223869132417       -0.57613072145500       -0.54817889674712
N            8.74730047740520       -0.48729480785185       -0.77385269362237
C            5.33741570889140        0.01560069191860       -1.31812991170640
C            3.97209765266111        0.22137132510568       -1.09145841494236
C            1.46761280929118        1.13866574376113        0.16933947154481
C            0.16396981050742        1.37157906297460        0.61906552001892
H           -6.32835612614557       -0.88176407159537        0.30402744441555
H           -7.21208396240059       -0.50391439732046       -1.21004000648809
H           -7.10789791581669        0.70284581067697        0.11387910503940
H           -4.72084625989290       -0.32377273014584       -1.53111412342974
H           -5.48993951083937        1.22456877074213       -1.69554525378034
H           -4.66899111870113        0.91208882787190        1.16744771071230
H           -4.06798951060450        1.99286257133564       -0.07623714854013
H           -2.46951768248690        0.32328703751124       -0.87383173081006
H           -3.25512549214466       -0.88111785152169        0.16900574600638
H           -2.46167515375068        0.20406299796091        2.10777660028785
H           -2.12428958473694        1.77341336997742        1.35647311827509
H           -0.65542358970448       -1.88244511986561        1.35196233640298
H            1.70665682496981       -2.13432991597616        1.24788933673342
H            3.84656228067770       -1.32708387520819        1.97629808467049
H            6.27846890280042       -1.31114500817370        1.67982075657322
H            5.73538343732919        0.21378484971851       -2.31160227575986
H            3.38207821580199        0.52374554348150       -1.95536908489469
H            2.00245375616744        1.99708510247193       -0.23216819814628
H           -0.15141977784787        2.41260022903424        0.62437721074617
C           -1.00533368881660       -1.18836346133535       -7.58592391880435
C           -1.35466524862795       -0.54186836920044       -6.25495593936899
C           -2.18672721336023        0.73833746896937       -6.32516601909359
C           -2.06594317535532        1.44624773270753       -4.97460795450770
C           -2.62520388645380        2.87020527120093       -5.00851147236619
C           -2.51091421928053        3.58993608593461       -3.68813824310316
C           -3.67254771481689        3.63674416697074       -2.91052249587135
C           -3.64127523585321        4.39942722056391       -1.73863729702153
C           -2.50099087652318        5.10580758594660       -1.32479260554876
C           -2.48494383003514        5.90416636334433       -0.08822826020876
C           -3.53901107110708        6.79062583440680        0.18969696073193
C           -3.66386948544789        7.46911097513762        1.40702048369756
C           -2.64993428308689        7.25389582072220        2.34339870333795
C           -2.84446530658975        7.89908796071537        3.60861232789192
N           -2.94147268015562        8.48307102450690        4.60698101668270
C           -1.52349184860099        6.46477487095022        2.09924693328349
C           -1.46777240961316        5.79069136804215        0.87436993012437
C           -1.34357162999701        5.03559714016487       -2.11593678232701
C           -1.35987719207038        4.27868519675632       -3.29186500125892
H           -1.86795469115449       -1.61548037300728       -8.10726178580170
H           -0.27753300242970       -2.00572951159823       -7.57463119413847
H           -0.56488631265258       -0.42816557846407       -8.23894937861388
H           -1.83676755661235       -1.28000593792806       -5.60346867404084
H           -0.39453263722790       -0.23957967812441       -5.82082569153315
H           -3.27058970615789        0.58974925805459       -6.40403803280318
H           -1.84228590854136        1.42950621001761       -7.10407636184955
H           -1.03318342952437        1.52988375501454       -4.61302706571703
H           -2.61803482679297        0.89528820768951       -4.20261746875626
H           -3.68423742054633        2.74714131286324       -5.26870895898308
H           -2.17322042958339        3.43245989943585       -5.83554054040756
H           -4.58622408055402        3.09598193569007       -3.14715663530651
H           -4.54450318585465        4.35863781066295       -1.13309593525463
H           -4.28091705378231        6.98559255481712       -0.58326554284004
H           -4.56649597544420        8.06429801257009        1.53214613900704
H           -0.77926706681764        6.38104493646664        2.88903189046408
H           -0.64392100044364        5.12764242546950        0.61450418120038
H           -0.48025666748675        5.64676040814707       -1.86036656007215
H           -0.49929066193384        4.34358251053119       -3.95398535070883
C           -4.81204100327305       -4.76421799921599       -4.23880723382310
C           -3.65035966713052       -4.52194330031652       -3.28840551895731
C           -4.08075489422870       -4.96266512063819       -1.88958261902077
C           -3.05135381852724       -4.44849924752207       -0.88176253223815
C           -3.51737638045013       -4.94263681037535        0.48945106420691
C           -3.05346415673049       -4.24003451993264        1.74069044115957
C           -1.70185367357502       -4.23968523656790        2.10043628222847
C           -1.29115111230024       -3.70819073103520        3.32714589731686
C           -2.27244992734252       -3.15484102653175        4.16460719117350
C           -1.78527651527681       -2.58469907592308        5.43122716789766
C           -1.23663337731128       -3.42105790316699        6.41794094595716
C           -0.69748314902972       -2.81592170301759        7.55852717566616
C           -0.95747192236256       -1.45932942235806        7.76649662715173
C           -0.36686859973855       -0.77202255643931        8.87720714473016
N            0.22942964373294       -0.25600886868667        9.72887846538652
C           -1.55455162458439       -0.60820577639465        6.83360913396244
C           -1.89956414633828       -1.19598999278487        5.61160637283972
C           -3.62416946834040       -3.17238362395468        3.78644373723481
C           -4.03831801516497       -3.64813623116729        2.53819361396727
H           -5.22508392778893       -5.74979293011393       -4.00137195045604
H           -4.50339076916474       -4.84022959786334       -5.28612201592331
H           -5.60198945119209       -4.00638260065165       -4.24042441825354
H           -2.83209283907817       -5.16802811119786       -3.62710572642508
H           -3.27209021703593       -3.49891562665721       -3.39809541312053
H           -4.11229096927872       -6.05890923853619       -1.87198671464593
H           -5.09907580666472       -4.64571541522313       -1.63341635136593
H           -2.98524391863145       -3.35330989713680       -0.90455800071380
H           -2.06007725721192       -4.79136054592212       -1.20447841505308
H           -3.19431285291744       -5.98814271430223        0.57280481198632
H           -4.61135708935879       -4.89410958143264        0.41700479136949
H           -0.88004684838421       -4.63015894602972        1.50429149142544
H           -0.23434694576430       -3.64915161052588        3.57981719581540
H           -1.30521785999871       -4.46668812896508        6.12152799020471
H           -0.08744900319940       -3.35070604491360        8.28413183055956
H           -1.79554268633354        0.43859526686529        7.00902900745581
H           -2.26161814269795       -0.64955067287689        4.74199973273691
H           -4.35463106237888       -2.71129178347014        4.44823598224817
H           -5.05838968600745       -3.53472911928489        2.17789252137950
114
 energy: -153.257259268881 gnorm: 0.163845022576 xtb: 6.7.1 (edcfbbe)
C           -6.41870013474182       -0.22905994824496       -0.37100000586310
C           -5.32353453031633        0.60001866011149       -1.02269350746968
C           -4.34105468823205        1.14656105305757        0.01278043718854
C           -3.07313593204243        0.31209411040264        0.20192693992631
C           -2.15336585316057        0.81169814066288        1.31816895400445
C           -0.72359121251476        0.41609465929181        1.04668466443757
C           -0.20908004490877       -0.86945468712539        1.24394639372812
C            1.09637734738727       -1.18086680097987        0.85052658283749
C            2.01849931984580       -0.19205653627849        0.47312503582717
C            3.43807122079219       -0.44500011477111        0.17721486970128
C            4.29397745954446       -0.99652137913401        1.14538676005990
C            5.66784804191948       -1.06308983541182        0.88875844698796
C            6.24866558934077       -0.55584904277955       -0.27594938100598
C            7.66934511022477       -0.51014113017086       -0.46158277738156
N            8.82794757383063       -0.44473415490036       -0.48499266007643
C            5.37715553991433        0.03650043731410       -1.19289414606915
C            3.99172146160792        0.08109386255948       -1.00210949231498
C            1.49908547333916        1.09978304432038        0.29474417747949
C            0.14296868755427        1.37038114806574        0.50381627127923
H           -5.94439660821833       -1.01860894779704        0.22059548468065
H           -7.21510324786869       -0.50955028203488       -1.06740246437890
H           -6.94896712936145        0.39893480855723        0.35203234662668
H           -4.79435432234469       -0.04907547004299       -1.73004720341248
H           -5.76352860065015        1.43365320997109       -1.58230390361932
H           -4.79819012976120        1.39801857500321        0.97758662996064
H           -3.96348220457861        2.09780240645541       -0.38172656283196
H           -2.56102240085983        0.42815003191734       -0.76171271683349
H           -3.32486524365482       -0.73704215760733        0.40261291311410
H           -2.57798872071306        0.19137519298526        2.11772811280744
H           -2.23988632242552        1.84146234018447        1.68762215629238
H           -0.75552085655789       -1.77907608654664        1.48314579284873
H            1.41077965246574       -2.22005734635796        0.77704571548419
H            4.00617875185389       -1.29122924149927        2.15346686745316
H            6.34921666004575       -1.51331851822538        1.60825075574418
H            5.78609468185570        0.57887909681686       -2.04332744562804
H            3.38844265937964        0.60886690124917       -1.73926963271894
H            2.03024010828234        1.99593983265564       -0.01977898083080
H           -0.25239524834894        2.30220940108936        0.10556089335121